"Move","Name","Prepare Animation","After Animation","AI Condition","AI Range","Range","Cooldown","Resource Cost","Power","Penetrate","Impact X","Impact Y","Critical Chance Bonus","Element","Status","Enemy Status","Special Effect","Property"
"Attack1","Loose Stone","name:Attack1_ready",,"self:{no_engage=800}",14000,15000,20,,120,100,600,-1000,0.35,"Crush",,,,"arc,no_defence"