"Move","Name","Prepare Animation","After Animation","AI Condition","AI Range","Range","Cooldown","Resource Cost","Power","Penetrate","Impact X","Impact Y","Critical Chance Bonus","Element","Status","Enemy Status","Special Effect","Property"
"Attack1","Toxic Beard",,,,1000,1000,5,,18,12,20,24,0.05,"Poison",,,,