"Move","Name","Prepare Animation","After Animation","AI Condition","AI Range","Range","Cooldown","Resource Cost","Power","Penetrate","Impact X","Impact Y","Critical Chance Bonus","Element","Status","Enemy Status","Special Effect","Property"
"Attack1","Loose Stone","name:Attack1Ready",,"self:{no_engage=800}",14000,15000,11,,55,200,900,800,0.35,"Crush",,,,"arc,no_defence,far_target"