"Move","Name","Prepare Animation","After Animation","AI Condition","AI Range","Range","Cooldown","Resource Cost","Power","Penetrate","Impact X","Impact Y","Critical Chance Bonus","Element","Status","Enemy Status","Special Effect","Property"
"Attack1","Throw Stone",,,"self:{no_engage=500}",6000,6000,2,,22,7,10,-12,0.15,"Crush",,,,"arc"
"Attack2","Drop Stone",,,,500,1000,4,,55,40,,-100,0.1,"Crush",,,,"direct"